============================== echo of input deck ==============================
echo

memory global 40 mb stack 23 mb heap 5 mb

geometry units angstrom noautosym
O  0 0 0
H  0 0.756723 -0.585799
H  0 -0.756723 -0.585799
end

scf
 vectors input nwchem_lammps.movecs
end

dft
 vectors input nwchem_lammps.movecs
end

basis
  O library 6-31g*
  H library 6-31g*
end

scf
 maxiter 100
end

task scf gradient

================================================================================

 Output coordinates in angstroms (scale by  1.889725989 to convert to a.u.)

  No.       Tag          Charge          X              Y              Z
 ---- ---------------- ---------- -------------- -------------- --------------
    1 O                    8.0000     0.00000000     0.00000000     0.11715980
    2 H                    1.0000     0.00000000     0.75672300    -0.46863920
    3 H                    1.0000     0.00000000    -0.75672300    -0.46863920

         Total SCF energy =    -76.010538634624

 Vector    2  Occ=2.000000D+00  E=-1.341930D+00

 Vector    3  Occ=2.000000D+00  E=-7.070591D-01

 Vector    4  Occ=2.000000D+00  E=-5.710712D-01

 Vector    5  Occ=2.000000D+00  E=-4.979251D-01

 Vector    6  Occ=0.000000D+00  E= 2.108019D-01

 Vector    7  Occ=0.000000D+00  E= 3.042327D-01

 Vector    8  Occ=0.000000D+00  E= 1.022735D+00

 Vector    9  Occ=0.000000D+00  E= 1.131842D+00

 Vector   10  Occ=0.000000D+00  E= 1.167786D+00

 Vector   11  Occ=0.000000D+00  E= 1.171944D+00

 Vector   12  Occ=0.000000D+00  E= 1.380937D+00

 Vector   13  Occ=0.000000D+00  E= 1.434077D+00

 Vector   14  Occ=0.000000D+00  E= 2.020054D+00

 Vector   15  Occ=0.000000D+00  E= 2.033720D+00

       Multipole analysis of the density wrt the origin
       ------------------------------------------------

     L   x y z        total         open         nuclear
     -   - - -        -----         ----         -------
     0   0 0 0      0.000000      0.000000     10.000000

     1   1 0 0     -0.000002      0.000000      0.000000
     1   0 1 0      0.000001      0.000000      0.000000
     1   0 0 1     -0.875296      0.000000      0.000000

     2   2 0 0     -5.372336      0.000000      0.000000
     2   1 1 0     -0.000002      0.000000      0.000000
     2   1 0 1      0.000001      0.000000      0.000000
     2   0 2 0     -3.071804      0.000000      4.089795
     2   0 1 1      0.000000      0.000000      0.000000

 Total times  cpu:        0.2s     wall:        0.1s
